LAMMPS data file via write_data, version 23 Jun 2022, timestep = 100000

2862 atoms
5 atom types

0 36.8864583699502 xlo xhi
0 36.8864583699502 ylo yhi
0 36.8864583699502 zlo zhi

Masses

1 18.998403
2 6.941
3 22.989769
4 39.0983
5 132.90545196

Atoms # atomic

779 1 1.4809389808724382 1.924963905400323 1.5984586202832771 0 1 0
831 4 0.5972292385634278 0.12878980979879717 3.647010867015534 0 1 0
2612 2 1.3076920876568112 3.5172979235576904 1.8637144555310285 0 1 1
852 1 4.067258689112928 3.1811843038489878 1.3207679448780416 1 1 0
1693 4 3.716102449728367 2.201002335278959 3.793746365466741 0 1 0
714 3 6.287852534504146 3.788898355664271 1.8658062999078686 0 1 0
2035 1 6.704330564446089 2.6873968618584776 3.544155836213413 0 0 1
691 2 6.289683885245467 0.8964916219725185 2.7803448049750648 0 1 0
756 1 4.858791842323896 0.2701112672205668 1.6327423823842424 0 1 0
2670 1 7.710905107084155 0.07921582188954039 1.9788514339152816 0 1 1
2682 1 9.679289467503224 2.6820970802863204 2.0046913816603578 0 1 1
2406 2 10.854061029222912 1.8992402572214908 2.87428057673095 0 0 1
2029 1 10.693951734727337 0.06298838118557253 2.4031702718102967 0 0 1
696 2 9.239590996596778 0.8398440087738145 1.487926522082591 0 1 0
108 1 12.176258534576386 3.571101688089266 2.603415699879214 0 0 0
188 3 8.657269393377764 3.187705508368955 0.20013008454524364 0 0 0
66 2 16.37527363635044 3.4619897364785888 1.6001668814096421 0 0 0
300 4 12.751867874137753 0.47086379087042557 0.9935036951316615 1 0 0
2344 1 15.7778870793447 0.9495567781547982 0.5070064002214355 0 0 1
2617 2 18.117761845797823 2.1292397890144996 2.7935357129978 -1 1 1
842 4 20.04068255993122 3.861166298322824 1.3088986975753165 0 1 0
1112 1 19.76541576337708 1.9238809506969488 3.895273241538137 0 0 0
981 1 16.701377492767346 1.0715570772416918 3.5135402996873744 0 0 0
772 1 18.12818686857008 2.0355276120537322 1.0395691785724517 0 1 0
1621 1 21.093966072964054 1.205968322761113 1.6359403946608946 0 1 1
917 2 21.473895367781388 1.4430660650421707 3.1411430730257357 0 1 0
2785 1 22.573555907512148 3.176481917038045 3.7686540972175795 0 1 1
1994 4 24.23148027910038 3.2322176776102416 1.7691857713603851 0 0 1
2050 1 22.815536577214985 0.4250838784890764 3.91462091146471 0 0 1
2695 1 25.420497260085238 2.8277171980380875 3.8566987209519312 0 1 1
650 1 26.000094243888793 1.36864206195931 1.1489607783365074 -1 1 0
1964 2 27.736913459259174 0.905097583550328 1.4556399454320113 0 0 1
1877 2 26.446848485123624 1.313063596441865 3.759945304328451 0 1 1
2135 1 28.109377931559205 0.645300810878205 3.0931879191569 0 0 1
2287 2 30.90947948198375 2.1295727352123737 1.3921885853734635 -1 0 1
774 1 29.060090877895366 2.027064472131159 0.6523923067018148 0 1 0
2165 1 31.996434013848095 1.7772133047280132 3.282659402291259 0 0 1
1921 1 31.12097878849046 0.2789821534509645 1.2131632478768977 -1 0 1
1209 1 32.21377346722674 3.562881012978996 0.7010228356493918 0 0 1
84 4 34.32955799161615 2.701772676656775 2.2518828978289473 -1 0 0
2780 1 34.97936167174656 0.003191573085789099 2.224635878108877 0 1 1
723 4 36.612828598236504 0.32600392363155545 0.4835332956969444 -1 1 0
2251 1 1.6582380249673752 4.34933816194228 3.642751994499179 0 0 1
140 1 1.27145908975772 5.071021490483404 1.0828634973022317 0 0 0
1868 2 0.6357502750711366 5.605380672730199 2.658012897150823 1 1 1
2465 1 0.8339559989021511 7.595113131066756 2.672893427940182 1 0 1
2536 4 3.4871309854380175 5.920606690612489 2.4364686173681243 1 0 1
1963 2 1.5940086683078363 6.863808140633259 0.1274571648558316 0 0 1
2042 1 3.781262898995959 6.812202367180211 0.25565506951416433 0 0 1
973 1 7.296484485745963 5.741729624280822 1.7326139636844993 0 0 1
401 4 6.603993334245233 7.541150832640389 3.489418920214706 0 0 0
159 1 9.51714405560371 7.7515129625717565 3.484572193342032 0 0 0
191 4 9.693814844478533 5.951361219424803 1.682928695226022 0 0 0
678 1 9.157488211573915 7.86682624750494 0.4252974639438112 0 1 0
470 1 11.843931639976992 6.474792689157443 0.706797861864552 0 0 0
2510 2 10.882940576350203 8.150656784579763 0.3924033093031478 1 0 1
2258 1 15.304344845754365 4.666132113505441 0.6119023724098257 0 0 1
820 3 12.850207741406573 4.506776100031343 0.7524503845781494 0 1 0
1592 1 14.749972608045958 7.824381077539636 3.5873339096302646 0 1 0
2415 4 15.021770828831569 7.118507321646578 1.0642103292537795 0 0 1
2776 1 17.63777811584909 4.255816524411437 2.440443080206367 0 1 1
2420 4 19.312486046038778 7.557392484261176 0.34905460025518176 0 0 1
212 5 17.573646264177473 6.7176315219726215 3.9763436353349455 0 0 0
1718 1 21.81563809410185 6.7579009173065 0.1710100975764958 0 1 0
2032 1 23.24443166923163 6.997398104038944 2.5995109176364806 0 0 1
55 2 21.62297869655352 7.187721681179305 2.091842488325363 0 0 0
1076 1 20.52512276402671 5.916353000932542 2.6713568540578936 0 0 1
2542 5 27.329929361855484 4.704600323263188 2.4797572129104264 0 0 1
1192 1 26.985431927619913 7.332853402714266 0.6219186001367052 0 0 1
483 2 28.51247984431946 6.7720005297314385 0.051753021647649756 0 0 0
2098 4 25.772921461796486 8.055351086106818 2.908907764064418 0 0 1
447 1 28.51000008892189 8.183564932729228 3.1180914861387627 0 0 0
2435 4 24.63347779253473 7.2019768267433015 0.11646142759441386 0 0 1
264 1 29.67616659295816 5.686479744826619 1.2291578383970496 0 0 0
2215 4 31.708104827282412 4.689620626828985 3.327037506942905 0 0 1
218 1 31.767720903866447 7.217022831667721 2.726215355694175 0 0 0
2500 2 30.283748630034115 7.361747556282153 1.7033537755969168 0 0 1
1944 1 35.92925207277403 4.95791429850018 2.911322739457447 -1 0 1
2428 4 34.85519948486831 7.475622304280798 2.6629664251603353 0 0 1
2266 1 0.8837300991133036 10.46425451554668 2.6531590306044426 0 0 1
1982 2 1.9336292374191109 9.207010300553993 2.1757923529941103 0 0 1
442 1 3.617414574408862 8.858249616530687 2.7425861489151644 1 0 0
2484 1 3.2021430098623287 11.482478272656529 0.3255212189493731 1 0 1
2518 3 4.423014755533752 9.050240264387174 0.31017048856482654 1 0 1
313 4 5.368132584454652 11.790183873456185 2.62403999123703 1 0 0
48 1 6.343233364198286 9.560213900812098 1.278938448835989 0 0 0
53 1 7.578239596487277 12.01979063307077 1.1376852043480876 0 0 0
2401 2 7.008740436634086 10.710590750814708 0.11990845431216485 0 0 1
836 4 11.85998074092752 8.199531562394252 3.041553874631025 0 1 0
2111 4 8.881942921276858 10.066625550236415 2.3474258608609335 0 0 1
783 1 11.75518260613837 9.62186556393605 1.1323688561851408 0 1 0
399 3 15.052718062237865 9.907437480372131 3.544016537383726 0 0 0
451 1 15.02962598482899 10.69859930473659 1.423614906620056 0 0 0
1356 4 12.626103061185292 11.927637153003664 2.5882231541344893 0 0 0
2482 1 17.388751836658848 8.513604728824806 1.7756731678055335 0 0 1
822 3 16.786194775147788 9.709664589471213 0.15554511496010498 0 1 0
2642 4 18.255844345300567 10.430649985257196 2.8464281219362535 0 0 1
708 2 23.264991106223324 9.156302827939747 2.5896119488508056 0 0 0
1391 1 21.376549148632186 9.245818026103576 2.4553942567064873 0 0 1
60 2 21.216754033912604 10.490327938821395 1.052437089917379 0 0 0
1705 1 24.472905178922638 9.636563304333343 1.244313176472996 0 0 1
1524 1 22.990899993493837 12.018577232245317 2.2161355607444806 0 0 0
2675 1 26.93253906530031 11.099820181590983 3.3326782907381287 0 1 1
1563 3 24.90369214536078 11.22692261458203 2.5033825324203067 0 0 1
602 2 28.633406947407007 10.05304348067441 3.3105524982538643 0 0 0
2270 1 30.288568361298456 10.336350411652258 1.7357156350922598 -1 1 1
1545 2 30.379303049958427 9.959011136734196 0.037969830819754954 0 0 1
2105 4 31.563877768692116 9.453069909610134 3.493878458290093 0 0 1
2187 2 36.719484852297334 9.686490703767731 1.0030452255596236 0 0 1
2446 1 35.09245481536451 9.108183297743532 0.944720001096306 0 0 1
2220 4 33.39666818547576 11.815469728155996 1.4400254314453136 0 0 1
252 1 34.08666850820932 10.366387689561108 3.5758162313995143 0 0 0
1034 3 0.7111513902538482 12.771021032941778 0.9975591902539502 0 0 1
2828 2 0.5549993047861209 15.347501620543271 1.8466241633808782 1 0 1
223 1 0.008545816021830384 14.07542167087007 2.832018851430635 1 0 0
372 2 3.749504012889302 15.175060358371892 1.5450700947124205 0 0 0
552 1 0.559276367684261 14.737607310711 0.008104421219154815 1 0 0
1342 2 6.257597203907869 14.8853492812846 2.2779190170942947 0 0 1
2 1 4.525543993143774 14.549627619256658 3.326456412123914 0 -1 0
132 1 7.144666062262744 13.508848210438412 3.5209114737975487 0 0 0
12 1 5.443848451599344 13.856939213489456 0.9474777383516279 0 0 0
1304 1 10.165197060042566 12.736201155680584 2.2704432236343353 0 0 0
68 2 8.491123851104446 13.376861083556932 2.1131204941444093 0 0 0
2271 1 8.38857113844984 15.146686820513747 1.3066927850287815 0 0 1
1318 1 11.740550909961607 14.89646652193868 0.28510918459786083 0 0 0
2400 2 10.365370667646514 15.105338705991556 1.504841261491587 1 0 1
366 1 10.858284809405497 16.33812575070729 2.6849304060264862 0 0 0
2442 1 14.246321394824156 13.467317505276805 0.9198482194799645 0 0 1
83 4 13.300582024609154 15.501642537377327 2.3115885284922713 0 0 0
1014 2 15.888964086803284 12.592477588031379 1.4093379551883303 0 0 0
543 1 13.483069555659595 13.74838928908311 3.9317789698629055 0 0 0
1584 4 16.536891941914412 15.314316275009443 0.6422643671224046 1 0 0
1744 1 17.49043265072237 12.861056577460309 2.1874922382527204 0 0 0
308 4 20.390930858787964 13.41570421743432 2.2537875409187156 1 0 0
1419 1 20.191790959695 15.46932372768229 3.725133193084392 0 0 1
2403 2 24.071902052059563 14.015988421040435 1.9907639948029812 0 0 1
227 1 22.506722557945558 15.066657986626488 1.1519007899234124 0 0 0
2792 1 24.491745989165533 14.503652894568214 3.5463673987630107 0 0 1
551 1 28.558961959359376 13.844251989923196 1.427206066159714 0 0 0
2366 1 25.251872522397477 12.744341148247047 1.1141923833613911 0 0 1
2529 4 27.299831911929545 14.422503691939951 3.5226883475866506 0 0 1
2327 4 30.21192873327733 12.760250503188649 3.1539541241487163 -1 0 1
608 3 29.181119078021588 15.949634780555655 0.22754734013495678 0 0 0
2060 1 32.789264167459905 13.52943152836033 3.146230446006441 0 0 1
560 1 2.425155464166169 16.481054913257797 1.666400877583435 1 0 0
1358 4 0.5135918518041942 18.6026174785058 0.1528601150807143 0 0 1
2233 1 3.5348340578651767 20.034425517295038 2.3479111800450174 0 0 1
327 1 5.747206968752381 16.516125509605832 1.753853494196649 0 0 0
2110 4 8.157107847428183 16.99290245418468 3.6237784953287386 0 0 1
1364 4 4.62953783271377 17.89423442324941 3.547116258608961 0 0 1
1504 1 7.278230233995587 19.428132225143464 3.4891814412792885 1 0 1
296 4 9.881465684600082 20.21454961276838 2.8148589480614494 1 0 0
980 1 11.794421507438573 19.045346372503758 0.9587981246466001 0 0 0
887 1 16.095420977343554 19.47978056255161 3.451626935724415 0 0 1
2113 4 12.917711424417506 18.884478396301784 3.0990622782417883 0 0 1
918 2 16.001703480292644 18.013299804445424 2.5665121915782945 0 0 0
334 1 14.913759643539777 17.533907746097764 1.1488150332150782 0 0 0
637 1 15.367162022313929 16.670500121273285 4.046761367275595 0 0 0
1170 1 17.712121567760615 17.191421864297688 2.007866452600953 0 0 0
2538 4 18.559478199992967 20.0713844962898 2.22974308317048 0 0 1
528 5 22.297840070558994 17.211422726036517 2.9251259424221123 0 0 0
2658 1 21.00527864291043 18.512946024414585 0.5170063065509306 0 0 1
488 2 21.997945686583737 19.985029023719267 0.3831047975331154 0 0 0
2154 1 24.736889146069178 19.249650630222828 1.865561630561267 0 -1 1
2533 4 25.408066221978657 16.967129934635693 2.426284575094021 0 0 1
200 4 27.356679510899664 19.31449088647023 3.4032137629452106 0 0 0
2477 1 28.017327212564002 17.170969540876452 2.2771753783246296 0 0 1
322 1 31.05904451027393 16.75283889668242 0.8258595899145569 -1 0 0
1585 4 29.33731263568208 19.68942737242024 0.8797850867802463 0 0 0
687 1 32.07869544244586 19.981398083805455 0.8265983057612194 -1 1 0
877 1 29.80681539290587 20.318796535358924 3.5475832573913255 0 0 0
186 3 29.634431866279343 16.727587578185737 3.184949961752995 0 0 0
634 5 33.32380796774123 16.466406754452148 2.327987365605623 0 0 0
1602 1 36.309794290808945 16.861925241470775 1.8989538144839753 -1 0 1
251 1 35.27647686843567 19.75164716859711 0.595536454119872 0 -1 0
2261 1 33.15965255196781 19.53294343750125 3.0100516485423747 -1 0 1
1547 2 33.628171976940536 19.497066146281377 1.2523353014905223 0 0 0
435 1 1.0801594841526043 21.382185925937012 0.6566598861790856 0 0 0
2541 4 1.3890758857539864 23.84792192038801 0.84340840637737 1 0 1
1792 4 1.3837069277292338 20.747996727935764 3.5650078034721813 0 0 0
1312 1 2.4560046373714775 22.886549214691712 3.921840571823691 0 0 0
2830 2 4.6649745668055385 20.641030497465103 3.411504917333099 1 1 1
11 1 5.810006399989163 22.122903029397637 2.7727806198453506 0 0 0
480 2 7.159056532508545 21.07368532410018 2.3093091451568544 0 0 0
325 1 7.90049894974253 21.02320962117228 0.5040709199188326 0 0 0
741 5 4.321147484752997 21.334065951031054 0.07736145612088104 0 0 0
738 4 7.297776678413101 24.021966365708135 1.9793505637328672 0 0 0
2594 1 12.007035918508423 21.418346140975526 2.667831989569937 0 0 1
95 4 10.672728024189896 23.930789773348433 1.315319223501844 0 -1 0
1319 1 9.331762101345587 22.730829487483792 2.8843372987771545 0 0 0
394 2 12.705859854549482 23.03613296486992 3.263596848419356 0 0 0
1597 1 14.609002254286358 20.80467378038225 1.5135337233299686 0 0 0
499 2 12.676411227807664 20.949714243298562 0.9824512369554482 0 0 0
763 1 13.33955764441233 23.626643847777384 1.5729672549774811 0 0 0
490 2 15.327232515085965 23.50049355704027 2.429382338114107 0 0 0
806 2 15.40664804440391 21.183698876435482 3.2614757507409924 0 0 0
1388 1 14.562235595448778 22.729224478399463 4.023515327443035 0 0 0
2574 1 16.907408093968932 22.91185931111813 2.478675404649502 0 0 1
1089 1 19.901482387998858 21.740169422574123 0.31448579751632516 0 0 0
802 2 20.2885948307799 24.067348531718107 0.20307398162894208 0 0 0
2294 2 24.03003997976921 20.814059277125416 1.9029571327809764 0 0 1
2651 1 22.052894341355078 20.704281030799947 2.029656066115807 0 0 1
349 1 20.744060769836345 23.76297564972109 2.6685770624335152 -1 0 0
2707 2 21.17547577570362 22.362887342189058 1.7994713320663496 0 0 1
125 1 22.05860890685333 23.30616069500813 0.18975809756550283 0 0 0
271 2 26.975070670429933 22.98962313356564 2.915849727467582 0 0 0
2342 1 25.290523694337352 22.2255294499785 2.6179751557830557 0 0 1
333 1 28.0237866412475 22.0439391746695 1.7520425050768975 -1 0 0
2836 3 25.95341335018586 21.121577166720318 0.6648023256621385 0 0 1
2082 2 28.449359653651555 23.139568510493778 0.5471746905703051 0 0 1
942 4 24.747822367182998 23.916895797605946 0.17542446215720006 0 0 0
1226 2 31.72726790790642 20.824827883743467 2.8854155525474177 0 0 1
194 4 29.67593441935589 23.090465310365335 3.4833332859337593 0 0 0
872 1 32.072913341063185 22.453125133499146 2.273102528570302 0 1 0
1024 2 32.73137985521454 23.36056951997808 3.944898071401241 -1 -1 0
1640 1 35.572974797906895 22.519265284445865 2.6848681042131184 -1 0 0
374 2 35.841456108073054 21.76075358984458 0.5809754110362618 -1 0 0
2305 3 34.57559916967746 21.010962112435447 3.9868416620725284 -1 0 1
660 1 3.9917077882058467 24.78947051513857 1.232481940042666 0 0 0
1783 4 1.2935830918936082 26.08619225193075 3.6016013279013115 0 0 0
1911 1 3.608902295431963 27.967695093235484 3.6101998944993667 0 -1 1
2611 2 5.252544899521741 25.992854252231464 1.1611299348784734 0 0 1
445 1 6.550541648951492 26.509168302412466 2.109463732135185 0 0 0
686 1 11.543075208481444 26.37473932645896 2.1166725631202605 0 0 0
1684 4 8.809585296352036 26.639628180211872 3.4925013398088858 0 0 0
1687 4 14.559478628945682 25.50527313713703 0.3045270640897779 0 0 0
828 4 13.512638355849033 25.938730515232333 3.93687957599238 0 0 0
752 1 15.663015673014888 25.99970227565975 2.622436914418085 0 0 0
525 4 18.07921490721255 25.4867004364768 2.9053788661555275 0 0 0
513 4 18.149602100942808 28.552003404982635 3.620318299403881 0 0 0
871 1 19.2554899590968 28.3882626456039 1.037073022558797 0 0 0
1883 3 22.19049985920645 25.17389700838097 3.6476548471027663 0 0 0
323 1 20.683464581618384 26.97435069718353 3.458486387264928 0 0 0
501 3 21.236435494319153 27.702846126046907 0.9022682199890874 0 0 0
350 1 22.656266787024165 26.069532994782023 1.6250777289473357 0 0 0
2607 2 22.632305169026843 27.36527876985301 3.094576483398257 0 0 1
534 1 26.136357118821966 25.28904076568649 1.8685287329552498 0 0 0
910 2 25.6917695733605 27.197806343145963 1.727375607536295 0 0 0
2779 1 24.840701210355405 28.069041186179717 2.9643062173167047 0 0 1
1245 3 27.861129333546945 26.344495030115443 0.7837858169719771 0 -1 1
1148 4 27.800648194826806 26.56066031548106 4.0125907184669 0 0 0
1810 1 26.816615490598906 28.154214212216726 0.8139870179035837 0 0 0
454 1 29.198585263310743 27.70059849689218 1.95847358031158 0 0 0
2022 1 29.314448210174707 24.773216174865766 0.8486351431680059 0 0 1
2430 4 31.421487382470485 26.940667432497523 2.1277338755904394 0 0 1
892 1 32.50752388953948 25.063871719931665 3.306908834298915 0 0 0
516 4 34.03297954127793 24.624526503173342 1.4907811192313627 0 0 0
1503 1 36.10341123193386 26.135742997885778 1.5807711333532108 0 0 0
2320 4 34.76723796851312 26.877765990323716 3.500236342398702 -1 0 1
1818 1 33.36127036708908 27.328182905417126 0.8292946547019774 0 1 1
1756 2 34.986777154439686 27.6766284601783 0.5439342391063953 -1 0 1
549 1 1.6838992033880096 29.275428048159913 1.2176234873837728 1 0 0
851 1 0.3190595957394244 31.62168883529831 1.6027607355298215 1 0 0
392 2 1.4460417549554156 30.974310435689667 0.12984428200935935 0 0 0
1026 2 0.1766972820340071 29.782776517765228 2.159868388751825 0 -1 0
668 1 2.7282851704531073 32.587488772903825 0.3582285284188024 0 0 0
2085 2 3.9967380419670038 32.62731528122703 3.505819958167883 0 -1 1
1931 1 2.1754096844403725 32.64148304473724 3.675347192627933 0 -1 0
190 4 2.8298258506483505 30.19014542007881 3.6126283494484355 0 -1 0
2835 3 7.543424573239969 28.736753502973166 0.050510621445813926 1 0 1
244 1 4.704684476033141 31.515593057642025 2.408154690955707 1 -1 0
1329 2 4.2009801735102235 32.20427287511864 0.6319261602113878 0 0 0
1680 4 4.4390324564596755 29.09428616635884 1.3375035148646763 0 0 0
1633 1 7.692878332445449 30.139471929198304 1.6280420686607011 0 0 0
415 4 6.228265188291552 30.074504301320463 4.027606602144971 0 0 0
2605 2 7.614983124042397 31.357706996007618 0.14980193845518075 0 0 1
1413 1 12.112068491859224 30.379078245985397 2.2036697580543008 0 0 0
624 4 9.584154615303564 31.355253113245045 2.451482870912105 1 0 0
690 2 12.598581902129435 31.07357079553335 0.5438418203696849 0 0 0
1743 1 14.88252957576396 29.226209643417086 1.5334394834819793 0 0 0
1751 2 14.023835276025581 30.341126867623775 2.861051627095428 0 0 0
2255 1 14.094216164841162 32.1018409122118 1.1395656882382215 0 0 1
1340 2 15.377449409089163 30.975299141182006 0.8079828375929122 0 0 1
694 2 12.564607976180534 32.54943941786707 2.888665549403548 0 0 0
837 4 19.894889576960477 31.064162988323318 1.1440453650422067 0 0 0
764 1 16.88828038588217 31.73940849545758 1.524517651701447 0 0 0
2653 1 22.063266685779503 28.871828974831583 2.265749892569942 0 0 1
2696 1 22.81266364237951 32.494970178262776 0.08784393087143913 0 0 1
1876 2 23.634775622202948 29.387125490955583 1.8545240113983448 0 0 0
1962 2 23.56816275157588 32.277195984994336 1.9386275883363024 -1 -1 1
49 1 21.777757296249447 31.608111153705487 2.7560531298045974 0 -1 0
2654 1 24.76965635510995 31.069304184638987 2.3022162270821687 0 0 1
506 3 25.478140230692 30.926992105300265 0.5328197865108867 0 0 0
2364 1 27.850342468618088 30.90742248419644 0.6651981884225678 0 0 1
2821 2 28.363437508056506 29.20408669638983 0.5650729778976886 0 0 1
2858 4 27.187897914370488 30.14200130181605 3.6356234611138154 0 0 1
2564 1 30.829034099620767 29.898419378546297 0.8934248872131901 -1 0 1
814 2 29.948993811409796 31.191816696474856 1.845922766746812 -1 0 0
870 1 32.65109078677561 29.51334556019867 3.70805318423169 0 0 0
2805 1 31.322328905758805 32.69566978816208 2.0186509424286525 0 0 1
1732 1 29.613420341651057 30.945525788766293 3.5923303695720366 0 0 0
1146 4 32.604576656280386 31.993563265239956 3.8557981530766043 0 -1 1
2505 2 36.75300747653194 31.99402027789359 3.6752876317214174 0 0 1
2833 3 33.02769400179629 29.75202774385275 1.2017998862635522 0 0 1
665 1 35.28642638770218 29.411719245007497 1.215351901985098 -1 0 0
386 2 35.55009107941715 31.07673604715619 0.7293344116168042 -1 0 0
1636 1 33.863174578000766 31.890784283508044 0.6080069228275519 -1 0 0
2604 2 2.2179234961851497 33.499052186145626 1.9414132510202227 0 0 1
1606 1 1.2231715028877173 34.91533356832326 1.6057846936102635 0 0 1
2661 1 3.8369484579682673 34.46552470606982 2.4098486450325463 0 0 1
418 4 6.531697736393052 34.276801369931796 2.162351941120852 0 0 0
2175 2 4.328128655189031 36.002116264172344 3.0145797593317027 1 -1 1
948 4 9.689395686826753 34.8710310360973 1.4028756499866548 0 0 0
2062 1 11.676161243717761 33.72085702562866 2.043775192858994 0 -1 0
2172 1 8.4494379495415 33.13303508838267 3.624618028636619 1 -1 1
882 1 8.581966874707138 32.95973344117964 0.2716558479890257 1 0 0
2725 2 16.170697819225616 36.50177785643233 2.1940528162734347 0 0 1
343 1 14.402784783072825 36.19467899016641 2.8854348767293856 0 0 0
825 4 12.426535665997694 35.10845938763153 4.0330730340573515 0 0 0
823 3 15.258441419752295 33.77318221498166 2.209972894994518 0 0 0
1733 1 14.092629631682025 32.91218668579767 3.8759048993772485 0 0 0
2752 4 19.183004897377923 32.808906107161164 3.860119464754646 0 0 1
753 1 20.013045552737577 33.776896761788166 0.7439830866089137 0 0 0
9 1 17.004968707848715 34.97764937152563 2.390147096652747 0 -1 0
2416 4 19.26571951400689 36.15501367853694 2.829714332374278 0 -1 1
2568 1 24.236530789009684 34.07946770500135 2.21577116316004 0 0 1
1248 3 21.77944693956175 34.1851699973912 1.7226418613931502 0 -1 0
2007 4 24.185011572749058 36.67612143988278 1.6791438858384113 0 -1 1
2759 1 21.104411355551438 34.7450029513913 3.774651058281954 0 0 1
677 1 25.456950173595988 36.43476755930895 4.092965097004248 0 0 0
509 4 26.327433120415446 34.20468601568582 0.8403520686802742 0 0 0
2157 1 27.456736148997205 34.260233123688174 3.0679731764314324 0 -1 1
1010 2 31.74266008448737 36.85723349257691 2.8447622358094797 -1 -1 0
419 4 29.756730208975718 34.59787142677081 2.1748618264030775 -1 0 0
2122 1 31.987439699117395 35.473965817402494 4.02128068134826 0 -1 1
2860 5 33.37016145209461 34.858370378228265 0.9815932482993764 0 0 1
999 1 0.812410666897673 1.5562088085670351 6.216605204465043 0 0 0
82 3 2.869976054362796 1.3121109419064652 7.172842610592375 0 0 0
1703 1 4.805553517217119 2.3207768371725703 6.710096551283394 0 1 0
335 1 7.894355274890408 3.205158585949621 7.424409302232991 0 0 0
71 2 6.212428134207317 2.6179582676248576 7.481075094187917 0 0 0
1091 1 11.107523896224631 1.9783853866501058 4.79794524035314 0 0 0
833 4 10.477984055331191 1.1827617293508315 7.1917164536324645 0 1 0
2647 4 9.046611186728141 0.5231432966263724 4.619551637893171 0 1 0
847 5 14.12547432633335 1.9320878191303879 4.404023000992462 0 0 0
1769 2 14.133373915053747 0.5603202348425956 7.568688337941522 0 1 0
1745 1 14.661578890267933 2.2611694152096034 7.116625743051249 0 0 0
914 2 18.290586448483683 1.3460191942730309 5.155838029296167 0 1 0
2549 1 18.47438908587208 2.9091272042655643 6.126828557707634 0 1 1
239 1 24.549985227316014 1.5806300226292531 6.686712344070645 0 0 0
286 2 23.482733017714345 1.9863289082404203 4.504989139414605 0 0 0
34 1 27.33454873371325 1.0677812619017655 5.431404126981984 0 0 0
1539 2 25.700903073411713 0.24609750382593362 5.839118109913351 0 0 0
2224 5 27.08344311244271 3.5515047623751648 6.675806103236461 0 0 1
515 4 29.601436835231723 1.9298071404901613 4.73698929558558 0 1 0
39 1 30.48993429824853 2.8442661642477063 6.851197818810777 -1 0 0
1237 2 35.88211096673048 0.9306347791979411 6.666984380057139 0 0 0
1686 4 32.89176245720519 2.0289240435296336 5.562174977924193 -1 1 0
2350 1 35.23808946588023 1.7611662676122857 4.546784304798506 0 0 1
2158 1 35.05888622414342 2.5807852888862306 7.4219940002491445 0 0 1
86 4 36.466792021927866 3.7217665428812774 5.098091376131749 0 0 0
105 5 2.303310851665018 5.954815006765281 6.280350012729113 0 0 0
1927 1 0.2342426424419509 8.157138838267503 7.295647580707995 1 0 0
1915 1 5.0247217834910405 6.10302213566937 4.676194771486733 0 0 0
2008 4 7.761544392696433 4.455307593641632 5.2114963746869725 0 0 0
2387 2 5.736325968035098 7.291598881774146 6.3153729338719256 1 0 1
2760 1 7.521971729511936 7.139728950420746 5.868005651759828 1 1 1
2336 1 4.788125036823203 6.347457837731494 7.46477152446843 0 1 1
1974 2 11.459576905484832 4.112561279325479 4.3022461962242735 0 0 1
294 3 9.792309378976348 6.975520305520784 5.821975108138351 1 0 0
147 1 10.614280921493206 5.027439479888199 5.415303177322105 0 0 0
144 1 11.667672885589393 7.798150789110957 5.981215127936919 0 0 0
826 4 16.152410515628944 4.2221312725239875 7.020812315377086 0 1 0
524 4 12.462031952328617 5.196891885743088 7.380226695131438 0 0 0
240 1 14.730888093495139 6.516723846547466 7.706627974682266 0 0 0
161 2 16.287323745878517 7.287571061512737 7.69477871050751 0 0 0
304 4 20.485874390753597 4.393581135091235 4.763410635397858 0 0 0
229 1 17.874233988699466 6.699520500418863 7.113401898315263 0 0 0
211 5 23.712225989956206 5.709883317819023 5.0053614850869295 0 0 0
1715 1 21.194530775922996 4.638440616707867 7.246281768412995 0 1 0
2063 1 22.200009087110963 7.885433026150127 6.328955085064432 0 0 1
905 2 21.818584692329086 6.327040868217267 7.727289548821246 0 1 0
751 1 23.84949516376242 5.306951421214976 7.78875267162229 0 1 0
148 1 26.650591233497597 6.7526275207377555 4.843845132469191 0 0 0
2519 3 27.12051856490318 7.452501601364035 7.099725683753106 0 0 1
400 3 29.235720073157704 6.853965067319579 4.7716573894218595 -1 0 0
542 1 30.81523602021283 7.940662942836584 5.81774950375679 0 0 0
2363 1 29.77012401601528 4.531421104941428 4.614260738686938 0 0 1
274 2 30.76846565606365 7.023815411891133 7.37726259419792 0 0 0
544 1 29.052719143241074 6.211046925168577 7.387959773758745 0 0 0
1125 2 30.198499277013703 4.670340154666109 6.433450577180328 -1 0 0
1003 1 32.23037530529419 5.973804741815372 7.813556835410624 -1 0 0
1142 3 33.48806164857475 4.117927867988822 7.542611203570839 0 0 0
2721 2 33.516132444536794 6.208423723594172 6.214576806390592 -1 1 1
260 1 33.02428397236565 4.526357261767717 5.710941084688771 0 0 0
1242 2 35.26414150990004 7.465029745824608 7.317935594815304 0 -1 0
254 1 34.30855516588157 7.661557301307265 5.646377969020408 0 0 0
2768 1 34.93469564400273 5.709622753989728 7.506917404528637 0 1 0
2847 4 0.14784432490385713 9.14265623572949 4.580046159227096 1 1 1
17 1 2.4933019276072805 10.196463231148908 5.852623495047699 0 0 0
269 2 1.3166860371368516 9.813738099995913 7.1067923664434804 1 0 0
2263 1 5.0515100578151495 9.091269909649775 6.1962481520417 0 0 1
2072 2 4.190666121164293 9.634270603927947 4.814202302460689 1 0 1
977 1 4.8018752754366 11.48747247521919 5.094795211405125 0 0 0
90 4 7.654271225024772 10.174480079225823 7.177718812684759 0 0 0
288 2 4.723430693128157 11.507780590050293 6.893921378275297 1 0 0
2672 1 7.448732563519827 11.247421970847638 5.025345275666981 0 1 0
96 4 11.09403606721433 10.39198898816817 6.561183186073897 0 0 0
20 1 9.88318571951597 12.173002500861747 8.070388767961397 0 0 0
2033 1 13.098224707564885 10.871624059736163 4.789335230985453 0 0 1
405 4 13.973704472887109 8.29786801417383 6.000994887648581 0 0 0
1427 1 14.59193703742659 12.293863224996048 6.9138199463696735 0 0 0
1133 2 14.147001730947062 12.234127387703763 4.8778506884550765 0 0 0
2335 1 15.769356672185852 11.538961158341655 4.4430564601928735 0 0 0
179 2 16.12170937771399 11.079639087390861 6.335141637926751 0 0 0
568 1 15.868055108064368 9.131816319621366 7.188665084135029 0 0 0
2299 2 18.818137758885047 11.07894223499183 6.145352799007163 0 0 1
1600 1 17.697631194005297 9.257229234882304 5.214253030567616 0 1 0
2463 1 18.879140369820426 10.116618228712431 8.043856108662194 0 0 1
27 1 17.497924738162087 12.294920686303495 6.549917046672013 0 0 0
178 2 17.76088877379745 8.98533672742259 6.89395445713077 0 0 0
775 1 20.235054662523417 11.169560639905095 4.978045652709259 0 1 0
1137 3 21.493653314669423 9.5011846259763 4.821189029234136 0 0 1
2049 1 23.65018702856339 9.717871258277196 4.374779208559949 0 0 1
2499 2 23.58867543126321 9.189419720120663 6.52565671705109 0 0 1
661 1 23.03584931154394 10.959677988218157 6.772473847558747 0 1 0
1530 1 25.138780514807703 8.447633517464467 7.048673954270891 0 0 0
2169 1 28.363776032595116 9.61989659932406 6.914160073227575 0 0 1
2850 4 26.13568724312 10.559985077559737 5.492185940461549 0 1 1
798 2 29.94344982407121 9.743611182115211 6.119085492732905 0 1 0
550 1 30.632795003752385 10.463567850245942 7.551104615273794 0 0 0
2378 1 29.681609739711735 10.960339308135511 4.807171990800084 0 0 1
2315 4 33.313107177422715 9.87354135578928 6.241082388195298 -1 0 1
548 1 36.63532157831428 11.104343743540019 6.478024815079275 0 0 0
1377 5 2.008715556218396 12.629928141343669 4.632271603336872 0 0 0
2606 2 1.9602303867139397 13.825826645887199 7.682868387948047 0 0 1
2589 1 0.1365529222061671 14.363862445051545 6.4352765611717695 0 0 1
580 1 3.151909481851432 12.576568888971199 7.142368900668761 1 0 0
417 4 4.503319378662283 15.159487197119129 5.992588384606085 0 0 0
1968 2 6.329263737266116 12.472360260694842 5.313024564600679 0 0 1
1807 1 6.296275115801519 13.62187644766515 6.7034118138645935 1 1 0
94 4 9.328121479369907 13.348798401358588 5.309979250241658 0 0 0
225 1 10.113163690855693 15.395945444862294 5.963507822588507 0 0 0
1543 2 10.84869187939432 13.931578156234846 8.18206679396546 1 0 0
2380 1 11.692336904553219 12.950450370866465 6.0065703725754345 0 0 0
493 2 12.905608273693144 14.320605107014071 5.697496578013117 0 0 0